# vtk DataFile Version 3.0
# Monte Carlo Trace
ASCII
DATASET UNSTRUCTURED_GRID
POINTS 24 double
0 0 0  1 0 0  2 0 0  3 0 0  4 0 0  5 0 0  
0 1 0  1 1 0  2 1 0  3 1 0  4 1 0  5 1 0  
0 2 0  1 2 0  2 2 0  3 2 0  4 2 0  5 2 0  
0 3 0  1 3 0  2 3 0  3 3 0  4 3 0  5 3 0  
CELLS 24 48
1 0 1 1 1 2 1 3 1 4 1 5 1 6 1 7 1 8 1 9 1 10 1 11 1 12 1 13 1 14 1 15 1 16 1 17 1 18 1 19 1 20 1 21 1 22 1 23 
CELL_TYPES 24
1 1 1 1 1 1 1 1 1 1 1 1 1 1 1 1 1 1 1 1 1 1 1 1 
POINT_DATA 24
SCALARS Dsc5Y double
LOOKUP_TABLE default
0.000000 0.000000 0.000000 0.000000 0.000000 0.000000 
1.061038 1.061038 1.103338 1.103338 1.020359 1.020359 
1.006130 1.006130 1.027236 1.027236 0.985457 0.985457 
0.991069 0.991069 0.954892 0.954892 1.028617 1.028617 
SCALARS Dsc5YHW double
LOOKUP_TABLE default
0.000000 0.000000 0.000000 0.000000 0.000000 0.000000 
0.000000 0.000000 0.000000 0.000000 0.000000 0.000000 
1.000000 1.000000 1.000000 1.000000 1.000000 1.000000 
0.985031 0.985031 0.929574 0.929574 1.043797 1.043797 
SCALARS FwdBond0 double
LOOKUP_TABLE default
0.997835 0.997835 0.997835 0.997835 0.997835 0.997835 
1.088924 1.088924 1.175236 1.175236 1.008951 1.008951 
1.032573 1.032573 1.094175 1.094175 0.974440 0.974440 
1.017117 1.017117 1.017117 1.017117 1.017117 1.017117 
SCALARS HWFwdBond double
LOOKUP_TABLE default
0.000000 0.000000 0.000000 0.000000 0.000000 0.000000 
1.061038 1.061038 1.103338 1.103338 1.020359 1.020359 
1.006130 1.006130 1.027236 1.027236 0.985457 0.985457 
0.991069 0.991069 0.954892 0.954892 1.028617 1.028617 
SCALARS Libor0 double
LOOKUP_TABLE default
0.001448 0.001448 0.001448 0.001448 0.001448 0.001448 
-0.057526 -0.057526 -0.093659 -0.093659 -0.019953 -0.019953 
-0.014969 -0.014969 -0.070426 -0.070426 0.043797 0.043797 
0.039975 0.039975 -0.132474 -0.132474 0.246704 0.246704 
