# vtk DataFile Version 3.0
# Monte Carlo Trace
ASCII
DATASET UNSTRUCTURED_GRID
POINTS 24 double
0 0 0  1 0 0  2 0 0  3 0 0  4 0 0  5 0 0  
0 1 0  1 1 0  2 1 0  3 1 0  4 1 0  5 1 0  
0 2 0  1 2 0  2 2 0  3 2 0  4 2 0  5 2 0  
0 3 0  1 3 0  2 3 0  3 3 0  4 3 0  5 3 0  
CELLS 24 48
1 0 1 1 1 2 1 3 1 4 1 5 1 6 1 7 1 8 1 9 1 10 1 11 1 12 1 13 1 14 1 15 1 16 1 17 1 18 1 19 1 20 1 21 1 22 1 23 
CELL_TYPES 24
1 1 1 1 1 1 1 1 1 1 1 1 1 1 1 1 1 1 1 1 1 1 1 1 
POINT_DATA 24
SCALARS Dsc5Y double
LOOKUP_TABLE default
0.000000 0.000000 0.000000 0.000000 0.000000 0.000000 
0.000000 0.000000 0.000000 0.000000 0.000000 0.000000 
0.000000 0.000000 0.000000 0.000000 0.000000 0.000000 
0.000000 0.000000 0.000000 0.000000 0.000000 0.000000 
SCALARS Dsc5YHW double
LOOKUP_TABLE default
0.000000 0.000000 0.000000 0.000000 0.000000 0.000000 
0.000000 0.000000 0.000000 0.000000 0.000000 0.000000 
0.000000 0.000000 0.000000 0.000000 0.000000 0.000000 
0.000000 0.000000 0.000000 0.000000 0.000000 0.000000 
SCALARS FwdBond0 double
LOOKUP_TABLE default
0.000000 0.000000 0.000000 0.000000 0.000000 0.000000 
0.000000 0.000000 0.000000 0.000000 0.000000 0.000000 
0.000000 0.000000 0.000000 0.000000 0.000000 0.000000 
0.000000 0.000000 0.000000 0.000000 0.000000 0.000000 
SCALARS HWFwdBond double
LOOKUP_TABLE default
0.000000 0.000000 0.000000 0.000000 0.000000 0.000000 
0.000000 0.000000 0.000000 0.000000 0.000000 0.000000 
0.000000 0.000000 0.000000 0.000000 0.000000 0.000000 
0.000000 0.000000 0.000000 0.000000 0.000000 0.000000 
SCALARS Libor0 double
LOOKUP_TABLE default
0.001448 0.001448 0.001448 0.001448 0.001448 0.001448 
0.116066 0.116066 0.073277 0.073277 0.160560 0.160560 
0.178457 0.178457 0.112110 0.112110 0.248762 0.248762 
0.241103 0.241103 0.035303 0.035303 0.487813 0.487813 
